data_phl_fe1
_publ_contact_author_name        'Ulian G.'
_publ_contact_author_email       gianfranco.ulian2@unibo.it

loop_
_publ_author_name
   'Ulian, G.'
   'Valdr\`e, G.'
_chemical_name_systematic        phlogopite-1M
_chemical_name_common            phlogopite-1M
_chemical_formula_sum            'H4 O24 Mg5 Al2 Si6 K2 Fe1'

_cell_measurement_pressure       0
_diffrn_ambient_pressure         0
_cell_measurement_temperature    0
_diffrn_ambient_temperature      0
_exptl_crystal_recrystallization_method ?
_chemical_melting_point          ?
_exptl_crystal_description       ?
_exptl_crystal_colour            ?
_diffrn_radiation_probe          ?
_diffrn_radiation_type           ?
_diffrn_radiation_wavelength     ?
_diffrn_source                   ?
_diffrn_source_type              ?

_computing_structure_solution    CRYSTAL17
_computing_structure_refinement  CRYSTAL17
_refine_special_details
;
CRYSTAL17 code (Dovesi et al., 2018)
This is a Fe-bearing phlogopite-1M model with chemical formula
KMg2.5Fe0.5(Si3Al)O10(OH)2, optimized in athermal 
conditions (0 K), and zero external pressure.
The structure has been calculated with periodic boundary conditions,
using the Density Functional Theory and B3LYP hybryd functional.
All-electron Gaussian-type orbitals (GTO) basis set have been used 
for each atom in the unit cell. This model was optimized with the
DFT-D2 correction to include long-range interactions.
;
_cell_length_a                   5.2856(0)
_cell_length_b                   9.1788(0)
_cell_length_c                  10.1916(0)
_cell_angle_alpha               90.0000(0)
_cell_angle_beta               100.0215(0)
_cell_angle_gamma               90.0000(0)

_symmetry_space_group_name_H-M     'P 2'
_symmetry_Int_Tables_number         3
_symmetry_cell_setting             monoclinic
loop_
_symmetry_equiv_pos_as_xyz
'+x,+y,+z'
'-x,+y,-z'

loop_
_atom_site_label
_atom_site_type_symbol
_atom_site_occupancy
_atom_site_fract_x
_atom_site_fract_y
_atom_site_fract_z
    K1    K  1.0000      0.0000    0.4934    0.0000
    K2    K  1.0000      0.5000    0.0056    0.0000
   Mg1    Mg 1.0000      0.0000    0.0036    0.5000
   Mg2    Mg 1.0000      0.0000    0.3334    0.5000
   Mg3    Mg 1.0000      0.0000    0.6641    0.5000
   Fe4    Fe 1.0000      0.5000    0.4978    0.5000
   Mg5    Mg 1.0000      0.5000    0.8344    0.5000
   Mg6    Mg 1.0000      0.5000    0.1734    0.5000
   Si1    Si 1.0000      0.0827    0.1652    0.2230
   Si2    Si 1.0000      0.9329    0.8341    0.7713
   Si3    Si 1.0000      0.5656    0.6659    0.2268
   Al1    Al 1.0000      0.4168    0.3323    0.7755
 O(a)1    O  1.0000      0.1266    0.1633    0.3853
 O(a)2    O  1.0000      0.8743    0.8324    0.6103
 O(a)3    O  1.0000      0.6263    0.6678    0.3888
 O(a)4    O  1.0000      0.3638    0.3355    0.6032
 O(b)1    O  1.0000      0.3427    0.2042    0.1664
 O(b)2    O  1.0000      0.9973    0.9970    0.1680
 O(b)3    O  1.0000      0.6798    0.7757    0.8304
 O(b)4    O  1.0000      0.8185    0.7309    0.1686
 O(b)5    O  1.0000      0.4956    0.5079    0.1620
 O(b)6    O  1.0000      0.1445    0.2764    0.8390
 O(h)1    O  1.0000      0.1374    0.5027    0.3960
 O(h)2    O  1.0000      0.6324    0.9994    0.3970
    H1    H  1.0000      0.1200    0.4938    0.3014
    H2    H  1.0000      0.5963    0.0127    0.3026
